<PP_INFO>
Generated using Vanderbilt code, version   7  3  6                              
Author: unknown    Generation date: 2017   11   17                              
Automatically converted from original format                                    
    1        The Pseudo was generated with a Scalar-Relativistic Calculation
  2.00000000000E+00    Local Potential cutoff radius
nl pn  l   occ               Rcut            Rcut US             E pseu
6S  6  0  2.00      0.00000000000      1.20000000000     -3.50341304300
6P  6  1  6.00      0.00000000000      1.80000000000     -1.98616698700
6D  6  2  0.00      0.00000000000      2.60000000000     -0.61495256200
5F  5  3  0.00      0.00000000000      1.10000000000     -0.49644126000
7S  7  0  2.00      0.00000000000      1.20000000000     -0.68133815500
</PP_INFO>


<PP_HEADER>
   0                   Version Number
  Ac                   Element
   US                  Ultrasoft pseudopotential
    T                  Nonlinear Core Correction
 SLA  PW   PBX  PBC    PBE  Exchange-Correlation functional
   11.00000000000      Z valence
  -97.48225706890      Total energy
    0.00000    0.00000 Suggested cutoff for wfc and rho
    3                  Max angular momentum component
  781                  Number of points in mesh
    5    6             Number of Wavefunctions, Number of Projectors
 Wavefunctions         nl  l   occ
                       6S  0  2.00
                       6P  1  6.00
                       6D  2  0.00
                       5F  3  0.00
                       7S  0  2.00
</PP_HEADER>


<PP_MESH>
  <PP_R>
  0.00000000000E+00  1.29135358847E-08  2.61539794867E-08  3.97296065143E-08
  5.36489021763E-08  6.79205664856E-08  8.25535196970E-08  9.75569078825E-08
  1.12940108648E-07  1.28712736995E-07  1.44884651330E-07  1.61465959625E-07
  1.78467025739E-07  1.95898475890E-07  2.13771205302E-07  2.32096385013E-07
  2.50885468858E-07  2.70150200625E-07  2.89902621398E-07  3.10155077084E-07
  3.30920226126E-07  3.52211047419E-07  3.74040848419E-07  3.96423273463E-07
  4.19372312294E-07  4.42902308809E-07  4.67027970022E-07  4.91764375256E-07
  5.17126985570E-07  5.43131653420E-07  5.69794632572E-07  5.97132588254E-07
  6.25162607580E-07  6.53902210223E-07  6.83369359370E-07  7.13582472950E-07
  7.44560435142E-07  7.76322608180E-07  8.08888844457E-07  8.42279498930E-07
  8.76515441845E-07  9.11618071781E-07  9.47609329025E-07  9.84511709285E-07
  1.02234827775E-06  1.06114268350E-06  1.10091917431E-06  1.14170261178E-06
  1.18351848689E-06  1.22639293591E-06  1.27035275678E-06  1.31542542581E-06
  1.36163911489E-06  1.40902270908E-06  1.45760582466E-06  1.50741882768E-06
  1.55849285287E-06  1.61085982316E-06  1.66455246961E-06  1.71960435189E-06
  1.77604987919E-06  1.83392433183E-06  1.89326388320E-06  1.95410562248E-06
  2.01648757771E-06  2.08044873966E-06  2.14602908614E-06  2.21326960699E-06
  2.28221232972E-06  2.35290034580E-06  2.42537783752E-06  2.49969010568E-06
  2.57588359786E-06  2.65400593748E-06  2.73410595355E-06  2.81623371117E-06
  2.90044054288E-06  2.98677908068E-06  3.07530328897E-06  3.16606849827E-06
  3.25913143978E-06  3.35455028086E-06  3.45238466141E-06  3.55269573110E-06
  3.65554618760E-06  3.76100031581E-06  3.86912402798E-06  3.97998490496E-06
  4.09365223840E-06  4.21019707408E-06  4.32969225633E-06  4.45221247352E-06
  4.57783430477E-06  4.70663626782E-06  4.83869886809E-06  4.97410464900E-06
  5.11293824357E-06  5.25528642733E-06  5.40123817251E-06  5.55088470372E-06
  5.70431955489E-06  5.86163862782E-06  6.02294025204E-06  6.18832524631E-06
  6.35789698165E-06  6.53176144591E-06  6.71002731003E-06  6.89280599599E-06
  7.08021174642E-06  7.27236169600E-06  7.46937594472E-06  7.67137763289E-06
  7.87849301814E-06  8.09085155433E-06  8.30858597245E-06  8.53183236362E-06
  8.76073026408E-06  8.99542274249E-06  9.23605648926E-06  9.48278190835E-06
  9.73575321115E-06  9.99512851297E-06  1.02610699318E-05  1.05337436897E-05
  1.08133202167E-05  1.10999742571E-05  1.13938849792E-05  1.16952360865E-05
  1.20042159335E-05  1.23210176426E-05  1.26458392250E-05  1.29788837050E-05
  1.33203592462E-05  1.36704792818E-05  1.40294626484E-05  1.43975337221E-05
  1.47749225594E-05  1.51618650406E-05  1.55586030174E-05  1.59653844638E-05
  1.63824636316E-05  1.68101012088E-05  1.72485644829E-05  1.76981275075E-05
  1.81590712743E-05  1.86316838881E-05  1.91162607472E-05  1.96131047279E-05
  2.01225263738E-05  2.06448440901E-05  2.11803843423E-05  2.17294818606E-05
  2.22924798487E-05  2.28697301987E-05  2.34615937110E-05  2.40684403193E-05
  2.46906493227E-05  2.53286096221E-05  2.59827199632E-05  2.66533891865E-05
  2.73410364821E-05  2.80460916518E-05  2.87689953780E-05  2.95101994993E-05
  3.02701672922E-05  3.10493737614E-05  3.18483059362E-05  3.26674631754E-05
  3.35073574788E-05  3.43685138077E-05  3.52514704129E-05  3.61567791709E-05
  3.70850059293E-05  3.80367308599E-05  3.90125488219E-05  4.00130697332E-05
  4.10389189519E-05  4.20907376673E-05  4.31691833002E-05  4.42749299142E-05
  4.54086686371E-05  4.65711080924E-05  4.77629748426E-05  4.89850138432E-05
  5.02379889084E-05  5.15226831884E-05  5.28398996590E-05  5.41904616232E-05
  5.55752132264E-05  5.69950199833E-05  5.84507693193E-05  5.99433711253E-05
  6.14737583258E-05  6.30428874628E-05  6.46517392930E-05  6.63013194012E-05
  6.79926588287E-05  6.97268147176E-05  7.15048709718E-05  7.33279389345E-05
  7.51971580823E-05  7.71136967381E-05  7.90787528010E-05  8.10935544950E-05
  8.31593611367E-05  8.52774639224E-05  8.74491867355E-05  8.96758869734E-05
  9.19589563962E-05  9.42998219965E-05  9.66999468917E-05  9.91608312378E-05
  1.01684013168E-04  1.04271069752E-04  1.06923617986E-04  1.09643315798E-04
  1.12431863088E-04  1.15291002789E-04  1.18222521956E-04  1.21228252884E-04
  1.24310074253E-04  1.27469912301E-04  1.30709742030E-04  1.34031588439E-04
  1.37437527790E-04  1.40929688906E-04  1.44510254502E-04  1.48181462548E-04
  1.51945607668E-04  1.55805042575E-04  1.59762179542E-04  1.63819491908E-04
  1.67979515626E-04  1.72244850846E-04  1.76618163540E-04  1.81102187173E-04
  1.85699724404E-04  1.90413648845E-04  1.95246906851E-04  2.00202519366E-04
  2.05283583809E-04  2.10493276010E-04  2.15834852198E-04  2.21311651031E-04
  2.26927095686E-04  2.32684695999E-04  2.38588050659E-04  2.44640849453E-04
  2.50846875578E-04  2.57210008002E-04  2.63734223890E-04  2.70423601090E-04
  2.77282320681E-04  2.84314669584E-04  2.91525043247E-04  2.98917948389E-04
  3.06498005815E-04  3.14269953309E-04  3.22238648590E-04  3.30409072352E-04
  3.38786331377E-04  3.47375661724E-04  3.56182432003E-04  3.65212146734E-04
  3.74470449782E-04  3.83963127887E-04  3.93696114282E-04  4.03675492401E-04
  4.13907499680E-04  4.24398531456E-04  4.35155144966E-04  4.46184063443E-04
  4.57492180321E-04  4.69086563541E-04  4.80974459969E-04  4.93163299929E-04
  5.05660701840E-04  5.18474476988E-04  5.31612634398E-04  5.45083385845E-04
  5.58895150990E-04  5.73056562634E-04  5.87576472120E-04  6.02463954865E-04
  6.17728316030E-04  6.33379096337E-04  6.49426078035E-04  6.65879291008E-04
  6.82749019050E-04  7.00045806291E-04  7.17780463786E-04  7.35964076273E-04
  7.54608009101E-04  7.73723915336E-04  7.93323743041E-04  8.13419742747E-04
  8.34024475108E-04  8.55150818751E-04  8.76811978330E-04  8.99021492775E-04
  9.21793243754E-04  9.45141464354E-04  9.69080747973E-04  9.93626057442E-04
  1.01879273438E-03  1.04459650877E-03  1.07105350883E-03  1.09818027103E-03
  1.12599375048E-03  1.15451133152E-03  1.18375083856E-03  1.21373054725E-03
  1.24446919587E-03  1.27598599709E-03  1.30830064993E-03  1.34143335210E-03
  1.37540481262E-03  1.41023626476E-03  1.44594947930E-03  1.48256677818E-03
  1.52011104839E-03  1.55860575633E-03  1.59807496244E-03  1.63854333625E-03
  1.68003617183E-03  1.72257940354E-03  1.76619962229E-03  1.81092409213E-03
  1.85678076732E-03  1.90379830977E-03  1.95200610697E-03  2.00143429037E-03
  2.05211375419E-03  2.10407617474E-03  2.15735403024E-03  2.21198062106E-03
  2.26799009062E-03  2.32541744664E-03  2.38429858311E-03  2.44467030265E-03
  2.50657033954E-03  2.57003738332E-03  2.63511110297E-03  2.70183217167E-03
  2.77024229227E-03  2.84038422331E-03  2.91230180580E-03  2.98603999055E-03
  3.06164486634E-03  3.13916368867E-03  3.21864490933E-03  3.30013820667E-03
  3.38369451666E-03  3.46936606470E-03  3.55720639831E-03  3.64727042055E-03
  3.73961442436E-03  3.83429612777E-03  3.93137470990E-03  4.03091084805E-03
  4.13296675552E-03  4.23760622060E-03  4.34489464635E-03  4.45489909152E-03
  4.56768831248E-03  4.68333280617E-03  4.80190485415E-03  4.92347856781E-03
  5.04812993469E-03  5.17593686595E-03  5.30697924507E-03  5.44133897782E-03
  5.57910004339E-03  5.72034854694E-03  5.86517277338E-03  6.01366324258E-03
  6.16591276589E-03  6.32201650424E-03  6.48207202754E-03  6.64617937570E-03
  6.81444112116E-03  6.98696243298E-03  7.16385114261E-03  7.34521781124E-03
  7.53117579894E-03  7.72184133552E-03  7.91733359313E-03  8.11777476081E-03
  8.32329012081E-03  8.53400812691E-03  8.75006048474E-03  8.97158223404E-03
  9.19871183313E-03  9.43159124539E-03  9.67036602804E-03  9.91518542309E-03
  1.01662024506E-02  1.04235740045E-02  1.06874609502E-02  1.09580282258E-02
  1.12354449446E-02  1.15198845011E-02  1.18115246792E-02  1.21105477635E-02
  1.24171406533E-02  1.27314949791E-02  1.30538072225E-02  1.33842788391E-02
  1.37231163846E-02  1.40705316434E-02  1.44267417613E-02  1.47919693813E-02
  1.51664427825E-02  1.55503960230E-02  1.59440690861E-02  1.63477080302E-02
  1.67615651428E-02  1.71858990981E-02  1.76209751187E-02  1.80670651411E-02
  1.85244479862E-02  1.89934095331E-02  1.94742428982E-02  1.99672486178E-02
  2.04727348366E-02  2.09910175000E-02  2.15224205515E-02  2.20672761353E-02
  2.26259248038E-02  2.31987157307E-02  2.37860069290E-02  2.43881654748E-02
  2.50055677367E-02  2.56385996112E-02  2.62876567640E-02  2.69531448768E-02
  2.76354799014E-02  2.83350883194E-02  2.90524074088E-02  2.97878855174E-02
  3.05419823430E-02  3.13151692206E-02  3.21079294172E-02  3.29207584338E-02
  3.37541643148E-02  3.46086679662E-02  3.54848034804E-02  3.63831184709E-02
  3.73041744136E-02  3.82485469984E-02  3.92168264891E-02  4.02096180918E-02
  4.12275423336E-02  4.22712354502E-02  4.33413497839E-02  4.44385541909E-02
  4.55635344597E-02  4.67169937396E-02  4.78996529802E-02  4.91122513820E-02
  5.03555468585E-02  5.16303165099E-02  5.29373571086E-02  5.42774855975E-02
  5.56515396007E-02  5.70603779466E-02  5.85048812051E-02  5.99859522376E-02
  6.15045167618E-02  6.30615239299E-02  6.46579469222E-02  6.62947835549E-02
  6.79730569043E-02  6.96938159458E-02  7.14581362098E-02  7.32671204539E-02
  7.51218993522E-02  7.70236322019E-02  7.89735076479E-02  8.09727444257E-02
  8.30225921236E-02  8.51243319630E-02  8.72792775997E-02  8.94887759450E-02
  9.17542080072E-02  9.40769897550E-02  9.64585730028E-02  9.89004463175E-02
  1.01404135949E-01  1.03971206786E-01  1.06603263331E-01  1.09301950704E-01
  1.12068955673E-01  1.14906007706E-01  1.17814880054E-01  1.20797390856E-01
  1.23855404278E-01  1.26990831678E-01  1.30205632801E-01  1.33501817002E-01
  1.36881444503E-01  1.40346627682E-01  1.43899532390E-01  1.47542379310E-01
  1.51277445338E-01  1.55107065013E-01  1.59033631971E-01  1.63059600446E-01
  1.67187486797E-01  1.71419871089E-01  1.75759398700E-01  1.80208781974E-01
  1.84770801923E-01  1.89448309957E-01  1.94244229670E-01  1.99161558669E-01
  2.04203370444E-01  2.09372816292E-01  2.14673127284E-01  2.20107616288E-01
  2.25679680037E-01  2.31392801250E-01  2.37250550816E-01  2.43256590018E-01
  2.49414672826E-01  2.55728648243E-01  2.62202462708E-01  2.68840162567E-01
  2.75645896598E-01  2.82623918605E-01  2.89778590082E-01  2.97114382928E-01
  3.04635882255E-01  3.12347789244E-01  3.20254924088E-01  3.28362229003E-01
  3.36674771320E-01  3.45197746647E-01  3.53936482122E-01  3.62896439738E-01
  3.72083219761E-01  3.81502564228E-01  3.91160360536E-01  4.01062645121E-01
  4.11215607233E-01  4.21625592805E-01  4.32299108417E-01  4.43242825363E-01
  4.54463583822E-01  4.65968397134E-01  4.77764456181E-01  4.89859133885E-01
  5.02259989813E-01  5.14974774903E-01  5.28011436311E-01  5.41378122373E-01
  5.55083187703E-01  5.69135198415E-01  5.83542937471E-01  5.98315410178E-01
  6.13461849811E-01  6.28991723390E-01  6.44914737590E-01  6.61240844814E-01
  6.77980249409E-01  6.95143414050E-01  7.12741066272E-01  7.30784205181E-01
  7.49284108326E-01  7.68252338749E-01  7.87700752211E-01  8.07641504604E-01
  8.28087059547E-01  8.49050196177E-01  8.70544017139E-01  8.92581956768E-01
  9.15177789495E-01  9.38345638451E-01  9.62099984295E-01  9.86455674268E-01
  1.01142793147E+00  1.03703236437E+00  1.06328497657E+00  1.09020217682E+00
  1.11780078924E+00  1.14609806385E+00  1.17511168738E+00  1.20485979429E+00
  1.23536097811E+00  1.26663430308E+00  1.29869931604E+00  1.33157605866E+00
  1.36528507999E+00  1.39984744925E+00  1.43528476906E+00  1.47161918889E+00
  1.50887341893E+00  1.54707074430E+00  1.58623503957E+00  1.62639078369E+00
  1.66756307531E+00  1.70977764846E+00  1.75306088861E+00  1.79743984921E+00
  1.84294226854E+00  1.88959658710E+00  1.93743196536E+00  1.98647830198E+00
  2.03676625253E+00  2.08832724861E+00  2.14119351751E+00  2.19539810239E+00
  2.25097488286E+00  2.30795859623E+00  2.36638485918E+00  2.42629019001E+00
  2.48771203151E+00  2.55068877433E+00  2.61525978099E+00  2.68146541046E+00
  2.74934704342E+00  2.81894710810E+00  2.89030910681E+00  2.96347764311E+00
  3.03849844973E+00  3.11541841711E+00  3.19428562274E+00  3.27514936118E+00
  3.35806017491E+00  3.44306988588E+00  3.53023162793E+00  3.61959987998E+00
  3.71123050011E+00  3.80518076043E+00  3.90150938291E+00  4.00027657608E+00
  4.10154407264E+00  4.20537516809E+00  4.31183476024E+00  4.42098938979E+00
  4.53290728194E+00  4.64765838902E+00  4.76531443421E+00  4.88594895636E+00
  5.00963735598E+00  5.13645694235E+00  5.26648698183E+00  5.39980874742E+00
  5.53650556959E+00  5.67666288828E+00  5.82036830639E+00  5.96771164447E+00
  6.11878499692E+00  6.27368278950E+00  6.43250183836E+00  6.59534141058E+00
  6.76230328620E+00  6.93349182183E+00  7.10901401587E+00  7.28897957540E+00
  7.47350098477E+00  7.66269357585E+00  7.85667560018E+00  8.05556830283E+00
  8.25949599823E+00  8.46858614780E+00  8.68296943972E+00  8.90277987051E+00
  9.12815482885E+00  9.35923518142E+00  9.59616536097E+00  9.83909345657E+00
  1.00881713062E+01  1.03435545916E+01  1.06054029356E+01  1.08738800021E+01
  1.11491535978E+01  1.14313957778E+01  1.17207829526E+01  1.20174959986E+01
  1.23217203711E+01  1.26336462203E+01  1.29534685099E+01  1.32813871394E+01
  1.36176070685E+01  1.39623384456E+01  1.43157967390E+01  1.46782028718E+01
  1.50497833595E+01  1.54307704520E+01  1.58214022787E+01  1.62219229972E+01
  1.66325829459E+01  1.70536388007E+01  1.74853537352E+01  1.79279975854E+01
  1.83818470179E+01  1.88471857036E+01  1.93243044941E+01  1.98135016043E+01
  2.03150827984E+01  2.08293615808E+01  2.13566593926E+01  2.18973058120E+01
  2.24516387607E+01  2.30200047148E+01  2.36027589216E+01  2.42002656213E+01
  2.48128982751E+01  2.54410397984E+01  2.60850828001E+01  2.67454298280E+01
  2.74224936205E+01  2.81166973645E+01  2.88284749599E+01  2.95582712910E+01
  3.03065425041E+01  3.10737562932E+01  3.18603921918E+01  3.26669418731E+01
  3.34939094566E+01  3.43418118243E+01  3.52111789426E+01  3.61025541942E+01
  3.70164947178E+01  3.79535717559E+01  3.89143710121E+01  3.98994930173E+01
  4.09095535049E+01  4.19451837953E+01  4.30070311915E+01  4.40957593824E+01
  4.52120488587E+01  4.63565973376E+01  4.75301201992E+01  4.87333509335E+01
  4.99670415989E+01  5.12319632921E+01  5.25289066305E+01  5.38586822458E+01
  5.52221212910E+01  5.66200759600E+01  5.80534200200E+01  5.95230493575E+01
  6.10298825389E+01  6.25748613839E+01  6.41589515545E+01  6.57831431588E+01
  6.74484513692E+01  6.91559170577E+01  7.09066074459E+01  7.27016167723E+01
  7.45420669762E+01  7.64291083987E+01  7.83639205023E+01  8.03477126075E+01
  8.23817246489E+01  8.44672279504E+01  8.66055260192E+01  8.87979553614E+01
  9.10458863166E+01  9.33507239148E+01  9.57139087547E+01  9.81369179036E+01
  1.00621265821E+02  1.03168505306E+02  1.05780228465E+02  1.08458067710E+02
  1.11203696779E+02  1.14018831779E+02  1.16905232260E+02  1.19864702318E+02
  1.22899091716E+02  1.26010297049E+02  1.29200262919E+02  1.32470983159E+02
  1.35824502077E+02  1.39262915730E+02  1.42788373239E+02  1.46403078130E+02
  1.50109289711E+02
  </PP_R>
  <PP_RAB>
  1.27527892591E-08  1.30756276562E-08  1.34066387463E-08  1.37460294220E-08
  1.40940118135E-08  1.44508034213E-08  1.48166272515E-08  1.51917119562E-08
  1.55762919753E-08  1.59706076840E-08  1.63749055424E-08  1.67894382498E-08
  1.72144649026E-08  1.76502511564E-08  1.80970693917E-08  1.85551988845E-08
  1.90249259806E-08  1.95065442747E-08  2.00003547941E-08  2.05066661862E-08
  2.10257949123E-08  2.15580654446E-08  2.21038104696E-08  2.26633710957E-08
  2.32370970665E-08  2.38253469793E-08  2.44284885097E-08  2.50468986405E-08
  2.56809638984E-08  2.63310805946E-08  2.69976550734E-08  2.76811039655E-08
  2.83818544486E-08  2.91003445147E-08  2.98370232434E-08  3.05923510829E-08
  3.13668001377E-08  3.21608544636E-08  3.29750103705E-08  3.38097767324E-08
  3.46656753052E-08  3.55432410537E-08  3.64430224848E-08  3.73655819912E-08
  3.83114962028E-08  3.92813563467E-08  4.02757686169E-08  4.12953545537E-08
  4.23407514313E-08  4.34126126569E-08  4.45116081786E-08  4.56384249044E-08
  4.67937671314E-08  4.79783569861E-08  4.91929348757E-08  5.04382599511E-08
  5.17151105808E-08  5.30242848381E-08  5.43666009995E-08  5.57428980563E-08
  5.71540362389E-08  5.86008975548E-08  6.00843863392E-08  6.16054298210E-08
  6.31649787019E-08  6.47640077507E-08  6.64035164125E-08  6.80845294338E-08
  6.98080975022E-08  7.15752979041E-08  7.33872351971E-08  7.52450419011E-08
  7.71498792057E-08  7.91029376962E-08  8.11054380978E-08  8.31586320384E-08
  8.52638028311E-08  8.74222662762E-08  8.96353714835E-08  9.19045017158E-08
  9.42310752535E-08  9.66165462807E-08  9.90624057945E-08  1.01570182537E-07
  1.04141443949E-07  1.06777797154E-07  1.09480889959E-07  1.12252411883E-07
  1.15094095219E-07  1.18007716111E-07  1.20995095667E-07  1.24058101097E-07
  1.27198646878E-07  1.30418695955E-07  1.33720260961E-07  1.37105405484E-07
  1.40576245348E-07  1.44134949942E-07  1.47783743572E-07  1.51524906852E-07
  1.55360778131E-07  1.59293754955E-07  1.63326295560E-07  1.67460920417E-07
  1.71700213800E-07  1.76046825407E-07  1.80503472010E-07  1.85072939159E-07
  1.89758082920E-07  1.94561831659E-07  1.99487187877E-07  2.04537230081E-07
  2.09715114713E-07  2.15024078117E-07  2.20467438570E-07  2.26048598350E-07
  2.31771045861E-07  2.37638357821E-07  2.43654201491E-07  2.49822336968E-07
  2.56146619538E-07  2.62631002083E-07  2.69279537555E-07  2.76096381502E-07
  2.83085794677E-07  2.90252145688E-07  2.97599913738E-07  3.05133691422E-07
  3.12858187597E-07  3.20778230323E-07  3.28898769885E-07  3.37224881885E-07
  3.45761770414E-07  3.54514771305E-07  3.63489355468E-07  3.72691132311E-07
  3.82125853244E-07  3.91799415274E-07  4.01717864693E-07  4.11887400855E-07
  4.22314380050E-07  4.33005319480E-07  4.43966901330E-07  4.55205976946E-07
  4.66729571116E-07  4.78544886461E-07  4.90659307939E-07  5.03080407455E-07
  5.15815948604E-07  5.28873891511E-07  5.42262397817E-07  5.55989835773E-07
  5.70064785476E-07  5.84496044227E-07  5.99292632033E-07  6.14463797242E-07
  6.30019022327E-07  6.45968029810E-07  6.62320788340E-07  6.79087518923E-07
  6.96278701311E-07  7.13905080553E-07  7.31977673710E-07  7.50507776741E-07
  7.69506971564E-07  7.88987133294E-07  8.08960437665E-07  8.29439368644E-07
  8.50436726229E-07  8.71965634452E-07  8.94039549581E-07  9.16672268533E-07
  9.39877937492E-07  9.63671060758E-07  9.88066509807E-07  1.01307953259E-06
  1.03872576306E-06  1.06502123094E-06  1.09198237176E-06  1.11962603711E-06
  1.14796950519E-06  1.17703049157E-06  1.20682716032E-06  1.23737813534E-06
  1.26870251197E-06  1.30081986897E-06  1.33375028073E-06  1.36751432984E-06
  1.40213311992E-06  1.43762828884E-06  1.47402202224E-06  1.51133706739E-06
  1.54959674740E-06  1.58882497583E-06  1.62904627158E-06  1.67028577429E-06
  1.71256925998E-06  1.75592315720E-06  1.80037456356E-06  1.84595126262E-06
  1.89268174132E-06  1.94059520771E-06  1.98972160928E-06  2.04009165163E-06
  2.09173681768E-06  2.14468938732E-06  2.19898245765E-06  2.25464996359E-06
  2.31172669916E-06  2.37024833917E-06  2.43025146155E-06  2.49177357020E-06
  2.55485311845E-06  2.61952953307E-06  2.68584323892E-06  2.75383568422E-06
  2.82354936647E-06  2.89502785899E-06  2.96831583816E-06  3.04345911136E-06
  3.12050464557E-06  3.19950059677E-06  3.28049634000E-06  3.36354250023E-06
  3.44869098401E-06  3.53599501192E-06  3.62550915182E-06  3.71728935296E-06
  3.81139298096E-06  3.90787885363E-06  4.00680727781E-06  4.10824008696E-06
  4.21224067991E-06  4.31887406040E-06  4.42820687777E-06  4.54030746859E-06
  4.65524589937E-06  4.77309401038E-06  4.89392546053E-06  5.01781577340E-06
  5.14484238448E-06  5.27508468952E-06  5.40862409421E-06  5.54554406503E-06
  5.68593018141E-06  5.82987018924E-06  5.97745405572E-06  6.12877402557E-06
  6.28392467870E-06  6.44300298931E-06  6.60610838652E-06  6.77334281652E-06
  6.94481080628E-06  7.12061952886E-06  7.30087887044E-06  7.48570149898E-06
  7.67520293463E-06  7.86950162197E-06  8.06871900400E-06  8.27297959806E-06
  8.48241107368E-06  8.69714433235E-06  8.91731358934E-06  9.14305645761E-06
  9.37451403380E-06  9.61183098642E-06  9.85515564630E-06  1.01046400993E-05
  1.03604402812E-05  1.06227160757E-05  1.08916314134E-05  1.11673543753E-05
  1.14500572973E-05  1.17399168778E-05  1.20371142885E-05  1.23418352875E-05
  1.26542703353E-05  1.29746147140E-05  1.33030686492E-05  1.36398374354E-05
  1.39851315640E-05  1.43391668551E-05  1.47021645923E-05  1.50743516609E-05
  1.54559606900E-05  1.58472301977E-05  1.62484047401E-05  1.66597350644E-05
  1.70814782655E-05  1.75138979465E-05  1.79572643839E-05  1.84118546961E-05
  1.88779530168E-05  1.93558506727E-05  1.98458463653E-05  2.03482463579E-05
  2.08633646669E-05  2.13915232580E-05  2.19330522475E-05  2.24882901086E-05
  2.30575838831E-05  2.36412893981E-05  2.42397714886E-05  2.48534042253E-05
  2.54825711487E-05  2.61276655086E-05  2.67890905100E-05  2.74672595650E-05
  2.81625965513E-05  2.88755360773E-05  2.96065237533E-05  3.03560164705E-05
  3.11244826860E-05  3.19124027165E-05  3.27202690375E-05  3.35485865918E-05
  3.43978731048E-05  3.52686594082E-05  3.61614897719E-05  3.70769222438E-05
  3.80155289990E-05  3.89778966975E-05  3.99646268501E-05  4.09763361956E-05
  4.20136570850E-05  4.30772378778E-05  4.41677433465E-05  4.52858550926E-05
  4.64322719724E-05  4.76077105336E-05  4.88129054636E-05  5.00486100486E-05
  5.13155966440E-05  5.26146571579E-05  5.39466035452E-05  5.53122683158E-05
  5.67125050547E-05  5.81481889554E-05  5.96202173671E-05  6.11295103554E-05
  6.26770112776E-05  6.42636873723E-05  6.58905303634E-05  6.75585570810E-05
  6.92688100960E-05  7.10223583721E-05  7.28202979342E-05  7.46637525531E-05
  7.65538744478E-05  7.84918450060E-05  8.04788755225E-05  8.25162079560E-05
  8.46051157057E-05  8.67469044067E-05  8.89429127469E-05  9.11945133029E-05
  9.35031133983E-05  9.58701559834E-05  9.82971205368E-05  1.00785523990E-04
  1.03336921677E-04  1.05952908304E-04  1.08635118948E-04  1.11385230077E-04
  1.14204960601E-04  1.17096072943E-04  1.20060374143E-04  1.23099716985E-04
  1.26216001157E-04  1.29411174438E-04  1.32687233916E-04  1.36046227235E-04
  1.39490253874E-04  1.43021466463E-04  1.46642072124E-04  1.50354333854E-04
  1.54160571937E-04  1.58063165395E-04  1.62064553478E-04  1.66167237182E-04
  1.70373780818E-04  1.74686813614E-04  1.79109031354E-04  1.83643198070E-04
  1.88292147763E-04  1.93058786177E-04  1.97946092618E-04  2.02957121810E-04
  2.08095005809E-04  2.13362955962E-04  2.18764264908E-04  2.24302308640E-04
  2.29980548617E-04  2.35802533924E-04  2.41771903490E-04  2.47892388366E-04
  2.54167814055E-04  2.60602102901E-04  2.67199276545E-04  2.73963458435E-04
  2.80898876404E-04  2.88009865316E-04  2.95300869769E-04  3.02776446878E-04
  3.10441269122E-04  3.18300127266E-04  3.26357933351E-04  3.34619723768E-04
  3.43090662405E-04  3.51776043874E-04  3.60681296822E-04  3.69811987322E-04
  3.79173822353E-04  3.88772653365E-04  3.98614479942E-04  4.08705453544E-04
  4.19051881360E-04  4.29660230243E-04  4.40537130756E-04  4.51689381316E-04
  4.63123952444E-04  4.74847991118E-04  4.86868825244E-04  4.99193968234E-04
  5.11831123705E-04  5.24788190290E-04  5.38073266577E-04  5.51694656171E-04
  5.65660872885E-04  5.79980646058E-04  5.94662926015E-04  6.09716889658E-04
  6.25151946206E-04  6.40977743070E-04  6.57204171889E-04  6.73841374710E-04
  6.90899750325E-04  7.08389960775E-04  7.26322938010E-04  7.44709890725E-04
  7.63562311365E-04  7.82891983305E-04  8.02710988220E-04  8.23031713633E-04
  8.43866860659E-04  8.65229451943E-04  8.87132839800E-04  9.09590714561E-04
  9.32617113128E-04  9.56226427750E-04  9.80433415017E-04  1.00525320508E-03
  1.03070131113E-03  1.05679363904E-03  1.08354649739E-03  1.11097660756E-03
  1.13910111428E-03  1.16793759628E-03  1.19750407729E-03  1.22781903734E-03
  1.25890142425E-03  1.29077066554E-03  1.32344668050E-03  1.35694989273E-03
  1.39130124281E-03  1.42652220146E-03  1.46263478292E-03  1.49966155873E-03
  1.53762567183E-03  1.57655085104E-03  1.61646142584E-03  1.65738234166E-03
  1.69933917540E-03  1.74235815143E-03  1.78646615803E-03  1.83169076414E-03
  1.87806023660E-03  1.92560355784E-03  1.97435044399E-03  2.02433136343E-03
  2.07557755588E-03  2.12812105186E-03  2.18199469278E-03  2.23723215141E-03
  2.29386795297E-03  2.35193749666E-03  2.41147707786E-03  2.47252391073E-03
  2.53511615153E-03  2.59929292245E-03  2.66509433606E-03  2.73256152038E-03
  2.80173664461E-03  2.87266294545E-03  2.94538475414E-03  3.01994752418E-03
  3.09639785973E-03  3.17478354474E-03  3.25515357282E-03  3.33755817784E-03
  3.42204886537E-03  3.50867844483E-03  3.59750106255E-03  3.68857223553E-03
  3.78194888624E-03  3.87768937811E-03  3.97585355207E-03  4.07650276393E-03
  4.17969992272E-03  4.28550953002E-03  4.39399772028E-03  4.50523230215E-03
  4.61928280087E-03  4.73622050171E-03  4.85611849454E-03  4.97905171951E-03
  5.10509701389E-03  5.23433316008E-03  5.36684093490E-03  5.50270316000E-03
  5.64200475370E-03  5.78483278404E-03  5.93127652319E-03  6.08142750323E-03
  6.23537957344E-03  6.39322895886E-03  6.55507432049E-03  6.72101681696E-03
  6.89116016773E-03  7.06561071793E-03  7.24447750483E-03  7.42787232600E-03
  7.61590980917E-03  7.80870748390E-03  8.00638585499E-03  8.20906847787E-03
  8.41688203579E-03  8.62995641896E-03  8.84842480583E-03  9.07242374624E-03
  9.30209324682E-03  9.53757685850E-03  9.77902176618E-03  1.00265788808E-02
  1.02804029336E-02  1.05406525729E-02  1.08074904632E-02  1.10810833869E-02
  1.13616023483E-02  1.16492226811E-02  1.19441241573E-02  1.22464910999E-02
  1.25565124981E-02  1.28743821254E-02  1.32002986606E-02  1.35344658121E-02
  1.38770924454E-02  1.42283927132E-02  1.45885861896E-02  1.49578980072E-02
  1.53365589981E-02  1.57248058375E-02  1.61228811925E-02  1.65310338731E-02
  1.69495189880E-02  1.73785981040E-02  1.78185394096E-02  1.82696178823E-02
  1.87321154609E-02  1.92063212215E-02  1.96925315581E-02  2.01910503679E-02
  2.07021892415E-02  2.12262676572E-02  2.17636131813E-02  2.23145616720E-02
  2.28794574902E-02  2.34586537141E-02  2.40525123602E-02  2.46614046095E-02
  2.52857110395E-02  2.59258218620E-02  2.65821371671E-02  2.72550671733E-02
  2.79450324837E-02  2.86524643491E-02  2.93778049374E-02  3.01215076101E-02
  3.08840372057E-02  3.16658703298E-02  3.24674956537E-02  3.32894142193E-02
  3.41321397525E-02  3.49961989840E-02  3.58821319792E-02  3.67904924749E-02
  3.77218482261E-02  3.86767813604E-02  3.96558887420E-02  4.06597823450E-02
  4.16890896356E-02  4.27444539642E-02  4.38265349681E-02  4.49360089830E-02
  4.60735694663E-02  4.72399274303E-02  4.84358118868E-02  4.96619703024E-02
  5.09191690661E-02  5.22081939680E-02  5.35298506906E-02  5.48849653125E-02
  5.62743848244E-02  5.76989776586E-02  5.91596342322E-02  6.06572675030E-02
  6.21928135405E-02  6.37672321110E-02  6.53815072774E-02  6.70366480142E-02
  6.87336888383E-02  7.04736904553E-02  7.22577404230E-02  7.40869538306E-02
  7.59624739961E-02  7.78854731807E-02  7.98571533213E-02  8.18787467824E-02
  8.39515171256E-02  8.60767598998E-02  8.82558034510E-02  9.04900097524E-02
  9.27807752555E-02  9.51295317635E-02  9.75377473255E-02  1.00006927155E-01
  1.02538614569E-01  1.05134391955E-01  1.07795881759E-01  1.10524747497E-01
  1.13322694801E-01  1.16191472478E-01  1.19132873608E-01  1.22148736662E-01
  1.25240946652E-01  1.28411436311E-01  1.31662187298E-01  1.34995231438E-01
  1.38412651992E-01  1.41916584960E-01  1.45509220412E-01  1.49192803865E-01
  1.52969637676E-01  1.56842082490E-01  1.60812558712E-01  1.64883548017E-01
  1.69057594908E-01  1.73337308299E-01  1.77725363150E-01  1.82224502138E-01
  1.86837537372E-01  1.91567352149E-01  1.96416902757E-01  2.01389220324E-01
  2.06487412708E-01  2.11714666448E-01  2.17074248746E-01  2.22569509516E-01